ITEM: TIMESTEP
0
ITEM: NUMBER OF ATOMS
500
ITEM: BOX BOUNDS pp pp pp
0.0000000000000000e+00 2.0250000000000000e+01
0.0000000000000000e+00 2.0250000000000000e+01
0.0000000000000000e+00 2.0250000000000000e+01
ITEM: ATOMS id type x y z fx fy fz
1 1 0 0 0 -0.0592929 0.0159271 -0.0107352
2 1 2.025 2.025 0 -0.126397 -0.0385479 0.120022
3 2 2.025 0 2.025 -0.111447 -0.0549401 -0.0667382
4 2 0 2.025 2.025 0.136354 -0.0692765 0.00529274
5 2 4.05 0 0 -0.119458 -0.01755 0.0780602
8 1 4.05 2.025 2.025 0.107023 -0.0458842 -0.0367965
21 1 0 4.05 0 0.0631754 -0.273228 -0.185851
23 1 2.025 4.05 2.025 -0.272554 0.316588 0.138736
25 1 4.05 4.05 0 0.164215 0.00746568 -0.15385
101 1 0 0 4.05 -0.0577347 -0.0223885 0.0634123
102 1 2.025 2.025 4.05 -0.0501551 -0.166551 -0.127811
105 2 4.05 0 4.05 -0.0539519 -0.091959 -0.0930865
121 2 0 4.05 4.05 -0.0935515 -0.0955028 0.464687
125 2 4.05 4.05 4.05 -0.0340535 -0.301661 0.0669116
6 2 6.075 2.025 0 0.00356855 -0.0773799 0.113989
7 1 6.075 0 2.025 0.0805288 -0.0162613 -0.0256024
9 1 8.1 0 0 0.123232 0.00318578 0.0805743
12 1 8.1 2.025 2.025 -0.122433 -0.0323112 0.0882396
27 2 6.075 4.05 2.025 0.170839 -0.255269 -0.0819548
29 1 8.1 4.05 0 -0.0294427 -0.0282654 -0.0356377
106 2 6.075 2.025 4.05 0.100509 -0.0614733 0.0728102
109 1 8.1 0 4.05 0.0580205 -0.0142434 -0.190204
129 2 8.1 4.05 4.05 0.244817 -0.0949085 -0.267209
10 2 10.125 2.025 0 0.155124 -0.127009 -0.108929
11 2 10.125 0 2.025 -0.032238 0.151067 -0.0040804
13 1 12.15 0 0 -0.124341 0.0536244 0.0471351
16 2 12.15 2.025 2.025 -0.0264122 -0.114644 0.00181484
31 1 10.125 4.05 2.025 -0.0105538 0.0320985 0.0252889
33 1 12.15 4.05 0 -0.0628077 -0.113968 0.0462826
110 1 10.125 2.025 4.05 0.150807 0.0824543 0.0800384
113 1 12.15 0 4.05 -0.0226095 -0.0693582 0.0588154
133 2 12.15 4.05 4.05 0.0489809 0.123968 0.0312299
14 2 14.175 2.025 0 -0.223654 -0.146541 0.145214
15 2 14.175 0 2.025 -0.149654 0.476092 0.024343
17 2 16.2 0 0 0.360327 0.202428 0.106804
20 1 16.2 2.025 2.025 -0.0166404 -0.0960833 0.0306488
35 2 14.175 4.05 2.025 -0.0637004 0.107572 -0.0667695
37 2 16.2 4.05 0 0.05872 0.0512804 0.163071
114 1 14.175 2.025 4.05 -0.126994 0.0260624 0.161472
117 2 16.2 0 4.05 0.102225 0.358007 0.0758084
137 2 16.2 4.05 4.05 -0.122734 -0.0141808 0.191227
18 1 18.225 2.025 0 0.036355 -0.0122106 0.123522
19 2 18.225 0 2.025 0.00998853 0.234764 -0.214187
39 2 18.225 4.05 2.025 -0.0527323 -0.0835279 -0.426335
118 2 18.225 2.025 4.05 0.0718835 -0.236427 0.227111
22 1 2.025 6.075 0 0.372544 0.0245413 -0.306901
24 1 0 6.075 2.025 -0.0337349 0.0714343 0.053491
28 1 4.05 6.075 2.025 -0.151926 -0.227194 0.171236
41 1 0 8.1 0 -0.242413 0.412462 0.0493935
43 1 2.025 8.1 2.025 -0.16119 -0.140526 0.241871
45 1 4.05 8.1 0 0.412914 -0.190375 -0.160297
122 2 2.025 6.075 4.05 -0.130499 -0.105831 0.503032
141 1 0 8.1 4.05 0.0303359 -0.0180291 -0.0720065
145 1 4.05 8.1 4.05 0.0608134 -0.131531 -0.0239818
26 1 6.075 6.075 0 -0.341355 0.0612724 0.100691
32 1 8.1 6.075 2.025 0.0163192 -0.187144 -0.120899
47 1 6.075 8.1 2.025 0.0305547 0.295598 0.00750608
49 1 8.1 8.1 0 -0.108026 0.00121261 -0.0592763
126 2 6.075 6.075 4.05 0.180775 -0.083243 0.0498618
149 1 8.1 8.1 4.05 -0.0798553 -0.125229 -0.0648523
30 2 10.125 6.075 0 0.200511 -0.0801399 0.171451
36 1 12.15 6.075 2.025 0.132423 0.0633589 0.0386426
51 2 10.125 8.1 2.025 -0.134844 -0.0702938 0.136521
53 2 12.15 8.1 0 0.211326 -0.0473829 -0.12873
130 1 10.125 6.075 4.05 0.0890673 -0.0404159 0.0551395
153 2 12.15 8.1 4.05 0.0321305 0.0433626 -0.0183572
34 1 14.175 6.075 0 0.105594 0.0838764 0.199815
40 2 16.2 6.075 2.025 -0.215046 0.167071 -0.232382
55 2 14.175 8.1 2.025 -0.111359 -0.2662 0.0934519
57 1 16.2 8.1 0 -0.0869404 0.0781783 0.230542
134 1 14.175 6.075 4.05 -0.0629475 -0.050024 -0.0435092
157 2 16.2 8.1 4.05 -0.0933057 -0.18447 0.302118
38 1 18.225 6.075 0 -0.170897 -0.166271 0.304985
59 2 18.225 8.1 2.025 -0.0905558 -0.178113 0.176753
138 2 18.225 6.075 4.05 -0.03211 -0.0179462 0.276548
42 1 2.025 10.125 0 -0.183377 0.242556 0.108484
44 1 0 10.125 2.025 0.104501 -0.101039 0.0136116
48 1 4.05 10.125 2.025 -0.0434686 0.0424086 -0.248239
61 1 0 12.15 0 -0.14755 -0.0825018 -0.0670713
63 2 2.025 12.15 2.025 0.214829 0.210853 -0.0111936
65 2 4.05 12.15 0 0.265376 0.145702 0.199378
142 2 2.025 10.125 4.05 -0.0897479 0.187022 -0.0315219
161 1 0 12.15 4.05 -0.185946 -0.00610436 -0.128671
165 2 4.05 12.15 4.05 0.196952 -0.0563836 0.08548
46 2 6.075 10.125 0 0.253576 0.367817 -0.0569958
52 2 8.1 10.125 2.025 0.0614271 -0.0641713 -0.0498266
67 1 6.075 12.15 2.025 0.118263 0.0442499 -0.0145503
69 2 8.1 12.15 0 -0.287266 0.0839972 0.342508
146 2 6.075 10.125 4.05 0.0952966 0.249441 -0.163858
169 2 8.1 12.15 4.05 0.12339 -0.0439345 0.0593638
50 2 10.125 10.125 0 0.168105 -0.00590346 0.128723
56 1 12.15 10.125 2.025 0.0712579 0.171954 -0.167118
71 2 10.125 12.15 2.025 -0.0618767 -0.143077 -0.0889219
73 1 12.15 12.15 0 -0.201534 0.0425898 -0.204112
150 1 10.125 10.125 4.05 0.048146 -0.0661955 0.00854803
173 2 12.15 12.15 4.05 -0.199244 -0.330179 0.0481665
54 1 14.175 10.125 0 0.0930398 -0.205151 -0.0819333
60 2 16.2 10.125 2.025 -0.206851 0.135771 -0.113244
75 1 14.175 12.15 2.025 0.065474 0.094638 0.154926
77 1 16.2 12.15 0 0.0653793 -0.0872506 0.0641278
154 2 14.175 10.125 4.05 0.0671876 0.331582 0.0405821
177 1 16.2 12.15 4.05 0.0841548 -0.147143 -0.027045
58 1 18.225 10.125 0 0.162537 -0.050302 0.0484177
79 2 18.225 12.15 2.025 -0.0894763 0.139735 0.0580229
158 1 18.225 10.125 4.05 -0.043317 -0.130436 -0.312406
62 1 2.025 14.175 0 -0.0712744 0.0113399 0.0569034
64 1 0 14.175 2.025 0.0252411 -0.0508803 0.0849299
68 1 4.05 14.175 2.025 0.0128838 -0.10833 -0.143161
81 2 0 16.2 0 -0.306851 -0.235277 0.144148
83 2 2.025 16.2 2.025 0.19789 0.140054 0.138497
85 1 4.05 16.2 0 0.365795 -0.119181 0.151785
162 1 2.025 14.175 4.05 0.115283 0.193187 -0.14477
181 2 0 16.2 4.05 -0.0160343 0.0487581 -0.0413455
185 2 4.05 16.2 4.05 -0.19956 0.170809 -0.0926916
66 2 6.075 14.175 0 0.0805408 -0.279944 0.125025
72 1 8.1 14.175 2.025 -0.0766614 -0.0757866 -0.0642269
87 2 6.075 16.2 2.025 0.290889 -0.0154279 0.107006
89 1 8.1 16.2 0 0.0266561 0.00792659 0.0678009
166 2 6.075 14.175 4.05 0.0951856 -0.168019 -0.279434
189 2 8.1 16.2 4.05 -0.176217 0.140423 -0.0264009
70 2 10.125 14.175 0 -0.199984 -0.0781051 0.146318
76 1 12.15 14.175 2.025 -0.203874 -0.186491 0.0125991
91 2 10.125 16.2 2.025 -0.0278008 -0.14566 -0.0539388
93 1 12.15 16.2 0 -0.17678 0.202383 0.127647
170 2 10.125 14.175 4.05 -0.0752798 0.080901 0.030661
193 1 12.15 16.2 4.05 0.0240681 0.0722596 -0.107013
74 1 14.175 14.175 0 0.479667 -0.09333 -0.0802032
80 2 16.2 14.175 2.025 0.157795 0.0387582 0.0439978
95 1 14.175 16.2 2.025 0.0188452 -0.0767372 -0.0513329
97 2 16.2 16.2 0 0.261833 0.0294166 0.190166
174 2 14.175 14.175 4.05 0.0467147 0.0859885 -0.069054
197 2 16.2 16.2 4.05 0.0625417 0.0886116 -0.0290251
78 1 18.225 14.175 0 0.0468595 0.0485727 0.0987653
99 2 18.225 16.2 2.025 0.0279884 -0.0622318 0.0383558
178 2 18.225 14.175 4.05 0.0155464 0.178567 -0.127533
82 1 2.025 18.225 0 0.00310786 0.139438 0.035462
84 2 0 18.225 2.025 0.15013 0.350483 0.0568404
88 1 4.05 18.225 2.025 -0.0589825 -0.0286099 -0.0684017
182 1 2.025 18.225 4.05 0.0783194 0.0344032 -0.167399
86 2 6.075 18.225 0 0.166803 0.0359466 -0.0504833
92 2 8.1 18.225 2.025 -0.248341 0.173664 0.00664673
186 1 6.075 18.225 4.05 -0.0295294 -0.127669 0.0133342
90 1 10.125 18.225 0 -0.0616473 0.0359449 -0.168356
96 2 12.15 18.225 2.025 0.0552466 -0.0765193 -0.082938
190 2 10.125 18.225 4.05 0.00677991 0.0952637 0.397888
94 2 14.175 18.225 0 -0.0514112 0.0623799 -0.0635276
100 2 16.2 18.225 2.025 -0.0180323 -0.351154 0.0421266
194 2 14.175 18.225 4.05 -0.392747 -0.235647 0.172654
98 2 18.225 18.225 0 0.0469391 0.108597 -0.185548
198 2 18.225 18.225 4.05 -0.0513697 -0.0356857 -0.0245649
103 2 2.025 0 6.075 -0.223322 0.175894 -0.249289
104 1 0 2.025 6.075 -0.0281561 0.178267 0.0189506
108 1 4.05 2.025 6.075 -0.0203976 0.114596 -0.107214
123 2 2.025 4.05 6.075 -0.1186 -0.00952421 -0.0951149
201 1 0 0 8.1 -0.0362017 0.00353055 0.0586899
202 2 2.025 2.025 8.1 -0.045362 -0.152158 0.0397371
205 2 4.05 0 8.1 0.0464762 -0.0618746 0.23404
221 2 0 4.05 8.1 -0.175667 0.0671698 -0.128098
225 1 4.05 4.05 8.1 -0.158523 -0.132072 0.151379
107 2 6.075 0 6.075 0.0979632 -0.0190227 0.0460824
112 1 8.1 2.025 6.075 -0.119052 0.00346009 0.021632
127 1 6.075 4.05 6.075 0.0780364 0.0790401 -0.00455452
206 1 6.075 2.025 8.1 0.139562 0.097011 0.129977
209 2 8.1 0 8.1 -0.0871492 0.113871 0.0451453
229 2 8.1 4.05 8.1 0.132172 -0.133867 -0.19669
111 2 10.125 0 6.075 0.116963 0.210621 -0.194113
116 2 12.15 2.025 6.075 0.16063 -0.0749239 -0.182143
131 2 10.125 4.05 6.075 -0.0587184 0.138266 0.127303
210 1 10.125 2.025 8.1 -0.0105207 -0.036011 0.0694739
213 1 12.15 0 8.1 0.150388 0.0739254 -0.238283
233 2 12.15 4.05 8.1 -0.260298 0.231621 -0.0526237
115 2 14.175 0 6.075 -0.120571 0.341396 -0.17918
120 1 16.2 2.025 6.075 0.0837029 -0.0200862 -0.0901035
135 1 14.175 4.05 6.075 0.101088 0.153329 0.0556483
214 1 14.175 2.025 8.1 -0.197235 -0.0671202 -0.23622
217 2 16.2 0 8.1 0.269566 0.0349652 -0.0419613
237 2 16.2 4.05 8.1 0.1276 -0.00311637 -0.00648439
119 1 18.225 0 6.075 -0.0498496 0.0467344 -0.0943463
139 1 18.225 4.05 6.075 0.0643824 0.0261011 0.0655471
218 2 18.225 2.025 8.1 0.127871 -0.100974 -0.075186
124 1 0 6.075 6.075 -0.0695998 0.017937 -0.0598185
128 1 4.05 6.075 6.075 -0.24664 -0.0793586 -0.249142
143 1 2.025 8.1 6.075 -0.152461 -0.0145659 0.0778362
222 2 2.025 6.075 8.1 -0.191103 -0.30933 -0.156014
241 2 0 8.1 8.1 -0.131028 0.00510336 -0.188834
245 1 4.05 8.1 8.1 -0.0380181 0.0824536 -0.0959852
132 2 8.1 6.075 6.075 0.170545 0.290367 -0.124894
147 1 6.075 8.1 6.075 -0.100673 -0.0404629 -0.154758
226 1 6.075 6.075 8.1 0.309534 -0.00266345 0.0834721
249 1 8.1 8.1 8.1 0.0298454 -0.121178 -0.0827123
136 1 12.15 6.075 6.075 0.137828 -0.00536765 -0.0219304
151 2 10.125 8.1 6.075 -0.319502 -0.0762592 0.0651137
230 1 10.125 6.075 8.1 -0.129403 -0.025726 0.0378976
253 2 12.15 8.1 8.1 0.135861 -0.290971 0.151284
140 1 16.2 6.075 6.075 -0.114889 -0.0180343 -0.168952
155 2 14.175 8.1 6.075 0.0218091 -0.360229 -0.256373
234 2 14.175 6.075 8.1 -0.0968016 0.00738468 -0.124184
257 2 16.2 8.1 8.1 -0.207951 0.0935249 0.136751
159 1 18.225 8.1 6.075 0.118053 -0.0645612 -0.13862
238 2 18.225 6.075 8.1 0.0948824 -0.0875006 -0.073739
144 1 0 10.125 6.075 0.291405 -0.0260326 0.160808
148 1 4.05 10.125 6.075 0.0883875 0.0647904 -0.022924
163 1 2.025 12.15 6.075 0.136743 -0.136774 0.0675057
242 2 2.025 10.125 8.1 -0.0247379 0.154008 0.216124
261 2 0 12.15 8.1 -0.137292 -0.139588 0.0458532
265 1 4.05 12.15 8.1 -0.169891 -0.0367305 0.025891
152 1 8.1 10.125 6.075 -0.0095025 0.129402 0.212717
167 1 6.075 12.15 6.075 0.024122 0.165881 0.054953
246 2 6.075 10.125 8.1 0.132254 0.10669 0.0687767
269 2 8.1 12.15 8.1 0.135691 -0.0676599 -0.209593
156 2 12.15 10.125 6.075 -0.0927607 0.402304 -0.0723748
171 1 10.125 12.15 6.075 -0.0607493 -0.0613867 0.136304
250 2 10.125 10.125 8.1 -0.109266 0.216874 0.0768646
273 1 12.15 12.15 8.1 -0.00544232 0.00207311 -0.0961435
160 1 16.2 10.125 6.075 -0.126556 -0.269617 0.0502089
175 2 14.175 12.15 6.075 0.0579018 -0.270462 0.160213
254 1 14.175 10.125 8.1 0.0902848 0.0858744 -0.00175
277 1 16.2 12.15 8.1 -0.00447727 0.024003 0.223501
179 1 18.225 12.15 6.075 0.211782 0.194021 0.0643588
258 2 18.225 10.125 8.1 -0.0857857 0.0393914 0.121652
164 1 0 14.175 6.075 -0.270801 0.0866012 0.0697647
168 1 4.05 14.175 6.075 0.0275277 -0.114548 -0.279996
183 1 2.025 16.2 6.075 -0.0426679 -0.0766024 0.0235692
262 2 2.025 14.175 8.1 0.0776113 0.0809073 0.0620682
281 1 0 16.2 8.1 0.265775 0.223058 0.146199
285 1 4.05 16.2 8.1 -0.20038 0.0478385 0.0454285
172 2 8.1 14.175 6.075 0.0448772 -0.134166 0.18448
187 1 6.075 16.2 6.075 -0.222418 -0.245274 -0.217208
266 1 6.075 14.175 8.1 0.162716 -0.0350942 0.105369
289 1 8.1 16.2 8.1 0.129153 -0.0241203 0.0165569
176 2 12.15 14.175 6.075 -0.00872626 0.16909 0.0160791
191 2 10.125 16.2 6.075 0.108134 0.17665 -0.046785
270 2 10.125 14.175 8.1 -0.0499567 -0.100861 -0.046913
293 2 12.15 16.2 8.1 0.0912767 0.220787 0.00766668
180 2 16.2 14.175 6.075 -0.0328686 -0.0704639 -0.181422
195 1 14.175 16.2 6.075 -0.05131 0.0635842 0.000749561
274 1 14.175 14.175 8.1 -0.221459 -0.0790658 -0.0904374
297 1 16.2 16.2 8.1 -0.0425104 0.133072 -0.117603
199 1 18.225 16.2 6.075 -0.167683 0.0543563 -0.163347
278 1 18.225 14.175 8.1 -0.180374 -0.243847 0.117406
184 2 0 18.225 6.075 0.12685 0.109602 -0.160482
188 2 4.05 18.225 6.075 -0.0705156 -0.17544 0.0314918
282 2 2.025 18.225 8.1 0.192903 0.186915 0.195157
192 1 8.1 18.225 6.075 0.127224 0.045979 -0.0353239
286 1 6.075 18.225 8.1 -0.0950425 0.0365933 0.0839502
196 1 12.15 18.225 6.075 -0.0551125 -0.0238718 -0.0341371
290 2 10.125 18.225 8.1 -0.0457546 -0.255886 0.096695
200 2 16.2 18.225 6.075 0.217567 -0.232801 -0.019384
294 2 14.175 18.225 8.1 -0.166462 -0.103532 -0.0610899
298 1 18.225 18.225 8.1 0.141755 0.0123413 0.136379
203 1 2.025 0 10.125 -0.119552 0.0566359 0.0144608
204 2 0 2.025 10.125 0.0514625 -0.0646163 0.0473858
208 2 4.05 2.025 10.125 -0.039492 -0.0431037 -0.0810332
223 1 2.025 4.05 10.125 -0.288628 0.0124358 0.0760267
301 2 0 0 12.15 -0.0343884 0.137398 -0.211244
302 2 2.025 2.025 12.15 -0.151701 -0.0231667 -0.29483
305 1 4.05 0 12.15 -0.151912 0.134157 -0.0769802
321 2 0 4.05 12.15 -0.164869 -0.0212959 -0.288743
325 1 4.05 4.05 12.15 -0.162414 -0.0495871 -0.156586
207 2 6.075 0 10.125 -0.207582 0.0486437 -0.0838026
212 2 8.1 2.025 10.125 0.216063 -0.124959 -0.0536861
227 2 6.075 4.05 10.125 0.0118854 -0.102572 0.147807
306 1 6.075 2.025 12.15 0.192379 0.000891596 -0.177153
309 2 8.1 0 12.15 0.135977 -0.0749461 -0.020426
329 2 8.1 4.05 12.15 0.189031 -0.0605678 0.0514709
211 1 10.125 0 10.125 0.01144 -0.036191 0.0387381
216 1 12.15 2.025 10.125 -0.156636 0.341061 0.281395
231 2 10.125 4.05 10.125 0.0223688 0.0905798 0.169633
310 1 10.125 2.025 12.15 0.0672786 0.0776828 -0.125815
313 2 12.15 0 12.15 -0.168521 -0.11613 0.00398081
333 2 12.15 4.05 12.15 -0.0857972 0.0831871 0.230488
215 1 14.175 0 10.125 0.108996 -0.337535 0.145432
220 1 16.2 2.025 10.125 0.272833 -0.149547 -0.148768
235 1 14.175 4.05 10.125 0.063469 0.292184 -0.0491348
314 1 14.175 2.025 12.15 -0.169338 -0.115518 0.258108
317 2 16.2 0 12.15 0.132246 0.0478378 -0.104989
337 1 16.2 4.05 12.15 -0.0393286 -0.00857099 0.0104314
219 2 18.225 0 10.125 0.182389 -0.0808015 -0.224359
239 1 18.225 4.05 10.125 -0.0175671 -0.0826195 0.190887
318 2 18.225 2.025 12.15 0.0521437 0.0663307 -0.170921
224 1 0 6.075 10.125 -0.088916 0.0673686 0.132511
228 1 4.05 6.075 10.125 0.286748 0.175261 -0.15834
243 1 2.025 8.1 10.125 -0.0191979 0.107824 -0.0834204
322 1 2.025 6.075 12.15 -0.0865979 -0.267578 0.404832
341 1 0 8.1 12.15 0.00421695 0.0491078 -0.0510117
345 1 4.05 8.1 12.15 0.111495 0.0429727 0.046138
232 2 8.1 6.075 10.125 0.512409 0.250306 -0.081384
247 2 6.075 8.1 10.125 -0.0645161 0.131139 0.124153
326 2 6.075 6.075 12.15 0.0811891 0.0156795 -0.114291
349 2 8.1 8.1 12.15 -0.15533 0.0952206 -0.129215
236 1 12.15 6.075 10.125 -0.00374154 -0.000200241 -0.111538
251 1 10.125 8.1 10.125 0.0800736 0.0427521 0.120653
330 1 10.125 6.075 12.15 -0.106545 -0.132428 -0.086058
353 2 12.15 8.1 12.15 -0.0179269 -0.0560676 -0.106374
240 2 16.2 6.075 10.125 -0.0987929 -0.0265668 0.252141
255 1 14.175 8.1 10.125 0.0231673 -0.138293 0.0702311
334 2 14.175 6.075 12.15 0.164642 -0.0263901 -0.184109
357 2 16.2 8.1 12.15 -0.356436 0.137644 -0.0291936
259 2 18.225 8.1 10.125 0.345664 0.00812419 0.220175
338 2 18.225 6.075 12.15 0.0511164 -0.116133 -0.157728
244 2 0 10.125 10.125 -0.194676 -0.162712 0.305726
248 1 4.05 10.125 10.125 0.0705322 0.129047 0.177954
263 2 2.025 12.15 10.125 0.0333636 0.0903968 0.15864
342 2 2.025 10.125 12.15 -0.121606 0.0683459 -0.0469084
361 2 0 12.15 12.15 0.269861 0.104183 -0.133723
365 2 4.05 12.15 12.15 0.347708 0.0202284 -0.0639969
252 1 8.1 10.125 10.125 -0.220353 0.0157152 -0.265696
267 2 6.075 12.15 10.125 -0.0796496 0.0111039 0.246511
346 1 6.075 10.125 12.15 0.034989 0.0740543 -0.0498177
369 1 8.1 12.15 12.15 0.0341022 0.224461 0.138779
256 2 12.15 10.125 10.125 -0.028349 0.0387678 -0.0652276
271 1 10.125 12.15 10.125 0.165872 -0.00913942 -0.280594
350 1 10.125 10.125 12.15 0.0839565 -0.0669959 0.151845
373 2 12.15 12.15 12.15 -0.324345 0.141722 -0.110286
260 2 16.2 10.125 10.125 -0.109237 -0.132652 -0.0342014
275 1 14.175 12.15 10.125 -0.0758059 -0.205477 0.0188886
354 2 14.175 10.125 12.15 0.287819 -0.0255213 0.0525362
377 1 16.2 12.15 12.15 -0.115257 -0.0523841 -0.0312048
279 2 18.225 12.15 10.125 0.293586 -0.291357 -0.0697438
358 2 18.225 10.125 12.15 -0.0710129 -0.0847973 -0.0298054
264 1 0 14.175 10.125 -0.0552134 0.0928715 0.00893912
268 1 4.05 14.175 10.125 -0.00169381 0.0053452 0.0447501
283 2 2.025 16.2 10.125 -0.134576 -0.21096 0.10667
362 1 2.025 14.175 12.15 0.113492 -0.160136 0.0969418
381 1 0 16.2 12.15 -0.178094 0.0150001 -0.242727
385 2 4.05 16.2 12.15 0.132909 -0.107657 -0.218025
272 2 8.1 14.175 10.125 0.226924 0.105721 0.165782
287 2 6.075 16.2 10.125 -0.165128 -0.033265 0.0403617
366 1 6.075 14.175 12.15 -0.0694398 -0.0501057 0.0366448
389 1 8.1 16.2 12.15 0.0729133 -0.0163928 -0.0461936
276 2 12.15 14.175 10.125 -0.416277 0.10872 -0.123343
291 1 10.125 16.2 10.125 0.211365 0.0536481 -0.0738365
370 1 10.125 14.175 12.15 0.0848791 -0.122667 0.133441
393 1 12.15 16.2 12.15 -0.0663039 0.0249282 -0.0501178
280 1 16.2 14.175 10.125 0.573446 0.0735225 -0.0303611
295 1 14.175 16.2 10.125 -0.0808131 -0.00907799 -0.0933007
374 1 14.175 14.175 12.15 -0.265031 -0.216658 -0.130449
397 1 16.2 16.2 12.15 0.160578 0.0343717 -0.065146
299 1 18.225 16.2 10.125 -0.0758501 0.0908552 0.324221
378 2 18.225 14.175 12.15 0.254531 0.0143717 0.281031
284 2 0 18.225 10.125 -0.0397299 0.210204 0.0816004
288 1 4.05 18.225 10.125 0.0907053 -0.013588 0.0192442
382 2 2.025 18.225 12.15 0.250283 0.169182 -0.0149366
292 2 8.1 18.225 10.125 0.0789985 -0.173496 0.00222192
386 1 6.075 18.225 12.15 -0.0155247 0.103326 -0.0810839
296 1 12.15 18.225 10.125 -0.0700614 0.0415731 -0.0580538
390 2 10.125 18.225 12.15 -0.322267 -0.163598 0.0245171
300 2 16.2 18.225 10.125 0.0170047 0.168603 0.140043
394 2 14.175 18.225 12.15 -0.170862 0.110177 0.0986519
398 2 18.225 18.225 12.15 -0.0136875 0.356737 0.140224
303 2 2.025 0 14.175 -0.225104 -0.0774766 0.127464
304 2 0 2.025 14.175 -0.127062 0.0709868 0.419226
308 1 4.05 2.025 14.175 -0.226525 -0.0740958 0.388665
323 2 2.025 4.05 14.175 -0.17102 -0.271939 0.11687
401 1 0 0 16.2 -0.150608 0.225873 -0.00197194
402 1 2.025 2.025 16.2 -0.046459 0.0372849 -0.00119395
405 1 4.05 0 16.2 -0.0703507 0.271481 0.00848492
421 1 0 4.05 16.2 -0.0408983 -0.0438853 0.027466
425 1 4.05 4.05 16.2 -0.0746996 -0.212862 0.170963
307 1 6.075 0 14.175 0.351641 0.283643 0.146752
312 2 8.1 2.025 14.175 0.332135 0.122813 -0.0197765
327 1 6.075 4.05 14.175 0.244779 0.0457989 0.16554
406 2 6.075 2.025 16.2 -0.0548022 0.226659 0.232751
409 2 8.1 0 16.2 0.173954 -0.221084 -0.0291104
429 1 8.1 4.05 16.2 0.00399238 -0.0788337 0.153346
311 2 10.125 0 14.175 0.0150198 -0.132636 0.0621567
316 2 12.15 2.025 14.175 -0.193882 0.208299 -0.00736298
331 1 10.125 4.05 14.175 -0.103135 0.0616475 0.0508873
410 2 10.125 2.025 16.2 0.0253917 0.368495 -0.0944359
413 2 12.15 0 16.2 0.00659433 0.052083 -0.135145
433 2 12.15 4.05 16.2 -0.0791116 0.00149253 0.011964
315 2 14.175 0 14.175 -0.128726 -0.172589 0.185411
320 2 16.2 2.025 14.175 -0.068646 0.152657 0.257554
335 1 14.175 4.05 14.175 0.170614 -0.00374918 -0.172864
414 1 14.175 2.025 16.2 -0.0548281 0.00574236 -0.0767626
417 1 16.2 0 16.2 0.118289 0.186338 -0.0912867
437 1 16.2 4.05 16.2 0.0854832 -0.101832 -0.237645
319 1 18.225 0 14.175 0.0589004 -0.0472557 0.0983835
339 1 18.225 4.05 14.175 -0.0575998 -0.110842 -0.0658147
418 2 18.225 2.025 16.2 0.0764217 -0.147889 -0.21023
324 2 0 6.075 14.175 -0.238415 -0.16073 0.236644
328 1 4.05 6.075 14.175 -0.0147187 -0.245688 -0.286775
343 1 2.025 8.1 14.175 -0.073046 0.043023 -0.0268451
422 1 2.025 6.075 16.2 0.161591 -0.183108 -0.132373
441 1 0 8.1 16.2 -0.113546 -0.0248122 -0.159245
445 1 4.05 8.1 16.2 0.0480522 0.131612 0.251585
332 2 8.1 6.075 14.175 0.218895 -0.00961747 -0.112398
347 1 6.075 8.1 14.175 -0.0245604 -0.0382255 -0.00476471
426 1 6.075 6.075 16.2 -0.0942555 0.0503719 -0.0168472
449 1 8.1 8.1 16.2 -0.134386 0.142823 0.0842754
336 2 12.15 6.075 14.175 -0.0382762 -0.0900115 0.0823316
351 1 10.125 8.1 14.175 0.132207 -0.142025 0.0161792
430 1 10.125 6.075 16.2 0.0143255 -0.124966 -0.139612
453 1 12.15 8.1 16.2 0.126449 -0.066276 0.00740876
340 2 16.2 6.075 14.175 -0.106377 -0.159762 0.0160156
355 1 14.175 8.1 14.175 -0.0973878 0.0392973 -0.109894
434 2 14.175 6.075 16.2 -0.000102578 -0.208188 -0.0858731
457 2 16.2 8.1 16.2 0.00231794 0.208741 -0.245706
359 2 18.225 8.1 14.175 0.0208997 0.48709 0.191185
438 2 18.225 6.075 16.2 -0.0120924 -0.282258 -0.211366
344 2 0 10.125 14.175 0.0737051 -0.153382 0.0913117
348 2 4.05 10.125 14.175 0.103357 0.0467729 -0.171518
363 2 2.025 12.15 14.175 -0.234212 0.337998 0.0445553
442 2 2.025 10.125 16.2 0.112544 -0.162132 -0.0460395
461 2 0 12.15 16.2 0.00072643 0.0220864 -0.216221
465 2 4.05 12.15 16.2 0.290005 0.0332593 0.118869
352 2 8.1 10.125 14.175 0.00991622 -0.0667256 0.087697
367 1 6.075 12.15 14.175 -0.0663019 0.0230089 0.139031
446 2 6.075 10.125 16.2 0.163625 0.063779 0.0389805
469 1 8.1 12.15 16.2 -0.0246348 -0.0538707 0.0680058
356 1 12.15 10.125 14.175 0.0806051 0.114336 -0.0191066
371 2 10.125 12.15 14.175 0.0168213 0.0731763 -0.074565
450 1 10.125 10.125 16.2 -0.019807 0.206815 0.0981245
473 1 12.15 12.15 16.2 0.00704769 -0.0424909 -0.0123658
360 1 16.2 10.125 14.175 -0.132646 -0.0152521 0.0711307
375 2 14.175 12.15 14.175 0.328097 -0.153737 -0.101709
454 1 14.175 10.125 16.2 0.276468 0.117663 0.101038
477 2 16.2 12.15 16.2 0.0779239 -0.126132 -0.135442
379 2 18.225 12.15 14.175 -0.132708 -0.0802566 0.0949785
458 1 18.225 10.125 16.2 -0.145872 -0.069522 -0.0245806
364 1 0 14.175 14.175 -0.130198 -0.183041 0.117513
368 2 4.05 14.175 14.175 -0.155201 -0.0413025 -0.0520623
383 1 2.025 16.2 14.175 -0.177063 -0.0543605 0.0325737
462 1 2.025 14.175 16.2 0.0217141 0.0321985 -0.165123
481 2 0 16.2 16.2 -0.203306 -0.252626 -0.188766
485 2 4.05 16.2 16.2 0.03139 0.0453229 -0.135435
372 2 8.1 14.175 14.175 -0.16839 -0.0881535 0.104089
387 2 6.075 16.2 14.175 0.257938 -0.100815 -0.143947
466 1 6.075 14.175 16.2 0.0379421 0.00942307 -0.0344081
489 2 8.1 16.2 16.2 0.0884937 0.0587635 0.142728
376 1 12.15 14.175 14.175 -0.0781388 -0.0453295 0.0824568
391 2 10.125 16.2 14.175 0.0224481 0.131961 -0.0385643
470 1 10.125 14.175 16.2 -0.0363608 -0.0780754 -0.0830658
493 2 12.15 16.2 16.2 -0.32942 -0.0355976 -0.0933739
380 1 16.2 14.175 14.175 0.142934 -0.177432 0.0256457
395 1 14.175 16.2 14.175 0.322568 0.216866 0.190044
474 1 14.175 14.175 16.2 -0.0924278 -0.0220884 -0.0917282
497 2 16.2 16.2 16.2 0.328576 -0.165044 -0.0797797
399 1 18.225 16.2 14.175 -0.0359508 -0.0794326 -0.0267817
478 2 18.225 14.175 16.2 -0.0268887 0.246384 0.262977
384 2 0 18.225 14.175 -0.0213879 0.0743004 0.0845445
388 1 4.05 18.225 14.175 -0.14628 -0.0697722 -0.269601
482 1 2.025 18.225 16.2 -0.0425971 0.115487 0.0956088
392 1 8.1 18.225 14.175 0.137827 0.12516 0.0267141
486 1 6.075 18.225 16.2 0.148361 -0.145815 0.0714107
396 1 12.15 18.225 14.175 -0.137729 -0.0619622 -0.0822075
490 1 10.125 18.225 16.2 -0.0326106 0.0093813 -0.0162503
400 2 16.2 18.225 14.175 0.00905347 0.0722037 0.0841915
494 1 14.175 18.225 16.2 -0.116004 0.220883 -0.066277
498 1 18.225 18.225 16.2 0.167961 -0.161326 -0.137105
403 2 2.025 0 18.225 -0.125252 -0.123639 0.153816
404 2 0 2.025 18.225 0.0234532 0.018283 0.00888556
408 2 4.05 2.025 18.225 -0.218946 -0.0094687 -0.245272
423 2 2.025 4.05 18.225 0.0352474 -0.276091 -0.157464
407 2 6.075 0 18.225 0.180699 -0.206972 -0.0583417
412 2 8.1 2.025 18.225 -0.132596 0.00484298 0.00137492
427 1 6.075 4.05 18.225 0.0512754 -0.116322 -0.0846028
411 2 10.125 0 18.225 -0.00303168 -0.103789 0.182828
416 1 12.15 2.025 18.225 0.0216214 0.0531001 -0.0385217
431 2 10.125 4.05 18.225 0.131974 -0.22074 -0.14036
415 2 14.175 0 18.225 -0.0860071 -0.0688502 -0.0880366
420 2 16.2 2.025 18.225 0.0937988 -0.0358567 -0.108606
435 2 14.175 4.05 18.225 -0.0352172 -0.0764617 -0.0846561
419 1 18.225 0 18.225 -0.0723134 0.000489175 0.0191133
439 2 18.225 4.05 18.225 -0.268637 -0.045912 -0.136614
424 1 0 6.075 18.225 -0.0992468 -0.129416 -0.136996
428 2 4.05 6.075 18.225 0.0991772 -0.183756 -0.172124
443 1 2.025 8.1 18.225 -0.0804041 0.00904507 -0.0511119
432 1 8.1 6.075 18.225 0.157261 0.0126452 -0.00775322
447 2 6.075 8.1 18.225 0.0212341 0.258921 -0.200264
436 1 12.15 6.075 18.225 0.0209808 -0.0469331 0.0687473
451 2 10.125 8.1 18.225 0.00977119 -0.04782 -0.013786
440 1 16.2 6.075 18.225 0.0991078 0.0143291 0.14667
455 2 14.175 8.1 18.225 0.032213 -0.098197 0.162326
459 1 18.225 8.1 18.225 0.134997 0.0182236 -0.0857524
444 2 0 10.125 18.225 -0.110704 0.344606 -0.0780335
448 1 4.05 10.125 18.225 -0.110575 0.129968 0.126233
463 2 2.025 12.15 18.225 -0.0292593 0.148114 -0.241053
452 2 8.1 10.125 18.225 -0.0973725 0.055355 0.0435755
467 1 6.075 12.15 18.225 0.100612 0.0891928 -0.156846
456 1 12.15 10.125 18.225 0.0809042 -0.060574 0.135692
471 2 10.125 12.15 18.225 -0.283604 0.0900825 -0.193692
460 1 16.2 10.125 18.225 0.00422895 -0.00271432 -0.107198
475 2 14.175 12.15 18.225 0.0852381 0.0260676 -0.0890551
479 2 18.225 12.15 18.225 -0.00365431 0.0747045 -0.078201
464 1 0 14.175 18.225 -0.0492217 -0.15418 0.0481504
468 1 4.05 14.175 18.225 0.0471846 -0.283619 0.000182268
483 1 2.025 16.2 18.225 -0.284138 0.0401243 -0.169892
472 2 8.1 14.175 18.225 -0.272299 -0.000603349 -0.114347
487 1 6.075 16.2 18.225 -0.0245941 -0.113103 0.0363769
476 1 12.15 14.175 18.225 -0.139703 -0.212929 -0.0903133
491 2 10.125 16.2 18.225 -0.162876 0.21556 0.0156836
480 1 16.2 14.175 18.225 0.0869126 -0.00938205 -0.0559619
495 1 14.175 16.2 18.225 0.086435 0.15473 0.112049
499 1 18.225 16.2 18.225 -0.0391809 -0.0338861 -0.0424351
484 2 0 18.225 18.225 -0.025563 0.0719309 0.0349425
488 1 4.05 18.225 18.225 0.0653375 0.216456 0.0120903
492 1 8.1 18.225 18.225 0.0530337 0.1963 -0.113626
496 2 12.15 18.225 18.225 0.0994349 -0.0317362 0.0209366
500 1 16.2 18.225 18.225 -0.0152819 0.0556766 0.198801
